# vtk DataFile Version 2.0
generated by FAnToM (SaveTensorField)
ASCII
DATASET UNSTRUCTURED_GRID
POINTS 1058 float
-137.732 -19.3025 273.05
-138.557 -19.3675 260.35
-132.84 -3.56 266.7
-28.7 107.19 112.01
-14.795 107.317 89.785
0 100.08 112.01
-58.1059 0.015799 19.05
-68.8224 18.4347 19.05
-72.6324 0.019749 19.05
-145.8 -43.43 266.7
-145.48 -61.8475 273.05
-145.925 -61.975 260.35
-140.845 -59.055 203.075
-135.382 -56.8325 170.18
-142.75 -38.1 187.96
-145.03 -43.18 241.3
-142.75 -34.04 254
-17.335 124.842 298.45
-18.48 130.685 311.15
-32 134.62 304.8
-0.014293 -75.1992 366.01
-18.866 -70.4571 366.01
-0.01072 -56.3994 366.01
-64.8537 -64.8537 366.01
-75.6627 -75.6627 366.01
-82.6118 -47.7008 366.01
66.4825 -27.75 285.75
65.8475 -27.43 298.45
69.34 -16.51 292.1
-3.81 133.35 342.9
15.1775 122.047 336.55
14.035 126.237 354.455
78.48999999999999 0 67.56
75.3125 -10.0325 43.305
77.47 -20.83 67.56
-129.54 -74.93000000000001 152.4
-121.412 -93.4725 170.18
-116.775 -90.0425 132.205
58.7481 0.031599 19.05
43.9051 11.7597 19.05
44.0611 0.023699 19.05
-19.115 135.067 323.85
3.56 127.51 330.2
63.18 8.255000000000001 203.075
66.29000000000001 0 187.96
65.595 -8.952500000000001 203.075
-116.59 31.24 152.4
-123.572 15.9375 170.18
-126.24 0 152.4
-89.59480000000001 -24.0543 19.05
-71.2324 -41.1302 19.05
-74.66240000000001 -20.0452 19.05
20.1584 -20.1368 19.05
10.0792 -10.0684 19.05
7.83586 -13.5817 19.05
49.9725 65.7225 132.205
33.3375 81.47 132.205
44.45 77.22 112.01
65.53 -15.75 241.3
64.77 1.78 241.3
64.4525 -7.81 229.745
64.83499999999999 -26.3525 229.745
-37.34 124.97 292.1
-52.325 125.475 298.45
-37.3304 21.5758 19.05
-22.6855 22.6998 19.05
-34.0282 34.0498 19.05
-121.67 0 112.01
-128.397 -17.59 89.785
-121.73 15.7475 89.785
-147.83 -90.93000000000001 317.5
-139.572 -108.395 323.85
-139.51 -108.077 311.15
-64.96250000000001 -153.035 336.55
-63.565 -156.147 354.455
-36.32 -152.4 342.9
-74.17 120.65 317.5
-85.2825 111.06 311.15
-67.06 123.95 304.8
-49.7739 28.7678 19.05
-55.0579 14.7478 19.05
-17.0825 -121.03 203.075
0 -113.28 218.19
0 -116.59 187.96
-144.97 -61.9125 311.15
-150.11 -81.03 304.8
-145.162 -61.975 298.45
61.47 33.27 254
58.735 45.6575 260.35
56.6425 44.005 247.65
-111.991 64.72750000000001 19.05
-102.11 102.11 19.05
-124.46 71.88 19.05
-107.95 82.93000000000001 43.305
-3.05 107.19 266.7
12 97.85250000000001 260.35
12.1275 98.1725 273.05
-50.675 120.142 285.75
-28.45 119.13 279.4
-71.7872 -19.2554 366.01
-71.62179999999999 -0.018154 366.01
-61.5319 -16.5046 366.01
14.687 0.007900000000000001 19.05
-0.025187 -0.039498 19.05
14.381 -3.8521 19.05
33.27 111.51 330.2
27.69 115.82 342.9
-57.15 98.81 187.96
-85.84999999999999 85.84999999999999 187.96
-70.485 91.1875 170.18
-62.2174 35.9597 19.05
13.0175 102.872 43.305
26.16 97.54000000000001 19.05
36.83 89.9175 43.305
-38.7915 67.18859999999999 19.05
-45.371 45.3997 19.05
-31.0332 53.7508 19.05
-62.0665 107.501 19.05
-79.3993 79.4496 19.05
-54.3081 94.06399999999999 19.05
0 108.46 67.56
25.91 97.03 67.56
-72.90000000000001 118.36 292.1
-64.01000000000001 118.11 279.4
-67.81999999999999 125.22 330.2
-83.06 108.71 336.55
-84.90000000000001 110.805 323.85
-54.5475 133.542 336.55
-72.14 117.35 342.9
-49.2775 116.46 43.305
-69.84999999999999 120.9 19.05
-32.26 119.89 19.05
-28.2054 104.938 19.05
-24.1761 89.94710000000001 19.05
0 108.46 19.05
23.8875 41.4197 19.05
36.7411 36.7497 19.05
31.8501 55.2263 19.05
48.9881 48.9996 19.05
-148.08 -80.01000000000001 330.2
-54.6125 132.97 323.85
-34.8 145.8 330.2
-55.245 130.94 354.455
-66.29000000000001 114.81 366.01
-45.9892 -79.6442 366.01
-55.1871 -95.5731 366.01
-106.872 82.80249999999999 311.15
-97.54000000000001 102.87 304.8
-102.36 96.77 317.5
-41.0213 -11.0031 366.01
-35.405 -20.4432 366.01
-47.2067 -27.2576 366.01
-23.2749 40.3131 19.05
-15.5166 26.8754 19.05
-8.0587 29.9823 19.05
-23.4891 87.4628 366.01
-39.7911 68.86879999999999 366.01
-46.423 80.34699999999999 366.01
-72.89749999999999 94.235 203.075
-77.1525 97.0925 229.745
-88.65000000000001 88.65000000000001 218.19
-135.64 -78.48999999999999 187.96
-14.5264 0.00395 19.05
-14.9324 -4.00905 19.05
-128.46 -54.1025 132.205
-126.75 -34.04 112.01
-127.065 -17.4625 132.205
-118.016 -68.14409999999999 366.01
-86.4717 -86.4716 366.01
-97.28060000000001 -97.28060000000001 366.01
70.485 -9.525 170.18
68.58 -18.54 187.96
-87.10429999999999 50.3436 19.05
-96.35129999999999 25.8086 19.05
-74.66079999999999 43.1517 19.05
-59.7299 -16.0362 19.05
-29.0529 0.007900000000000001 19.05
-41.2934 11.0608 19.05
-43.5794 0.011849 19.05
-142.49 -82.3 19.05
-149.35 -40.13 19.05
-139.445 -58.5475 43.305
-128.218 -74.03440000000001 19.05
-47.1339 -47.1282 19.05
-34.0821 -59.0224 19.05
-25.5616 -44.2668 19.05
-138.62 -107.125 298.45
-131.83 -124.71 304.8
-59.94 103.63 218.19
-46.925 107.25 229.745
-66.04000000000001 107.19 241.3
66.04000000000001 19.56 266.7
68.07250000000001 8.8925 273.05
68.33 16.26 279.4
27.94 -93.98 241.3
35.6225 -84.3925 229.745
24.89 -93.22 218.19
-69.34 112.52 266.7
-60.96 112.78 254
-48.1325 114.427 260.35
56.64 92.2 330.2
54.36 100.58 342.9
42.99 105.027 336.55
22.1 92.2 266.7
26.67 89.92 279.4
46.735 61.5325 247.65
44.64 60.7075 229.745
51.31 54.36 241.3
-43.2358 -43.2358 366.01
-32.4268 -32.4268 366.01
-106.807 82.6125 298.45
44.7 -82.8 304.8
51.37 -68.5175 298.45
48.26 -78.48999999999999 292.1
64.895 27.6225 323.85
66.29000000000001 19.81 317.5
62.74 14.99 330.2
-9.51623 2.5374 366.01
-9.238960000000001 5.33104 366.01
0.028586 0.028528 366.01
69.595 -9.2075 285.75
69.84999999999999 -2.03 279.4
68.4525 -9.2075 273.05
43.94 -11.68 366.01
50.8 -5.8425 354.455
48.64 -19.4925 354.455
-95.94750000000001 -127.187 229.745
-100.837 -129.665 247.65
-84.33 -137.16 254
-59.0084 -34.072 366.01
59.9425 -46.545 298.45
57.4 -54.36 292.1
55.12 -58.42 304.8
60.83 -47.31 285.75
-18.3957 -31.8577 366.01
-27.5935 -47.7865 366.01
-110.74 68.06999999999999 330.2
-102.805 79.7525 336.55
-108.2 58.67 342.9
-35.05 118.11 266.7
-15.94 111.952 273.05
-0.016335 77.3437 366.01
-0.020418 96.67959999999999 366.01
21.4876 80.24760000000001 366.01
-43.43 145.8 342.9
-39.12 145.8 366.01
16.1157 60.1857 366.01
-0.012251 58.0077 366.01
26.8595 100.309 366.01
-0.024502 116.015 366.01
32.26 120.4 366.01
-117.855 46.735 229.745
-116.902 48.26 247.65
-125.73 29.97 241.3
-98.80500000000001 74.355 354.455
-53.7225 129.857 311.15
-97.03 91.69 342.9
-19.62 138.115 336.55
-41.66 140.21 317.5
-16.575 116.525 285.75
-3.3 118.62 292.1
-61.893 61.853 366.01
-70.73480000000001 70.6891 366.01
-31.3188 116.617 366.01
-35.2337 131.194 366.01
-83.1506 47.9793 366.01
-33.1592 57.3907 366.01
-53.0511 53.0168 366.01
-55.4337 31.9862 366.01
-66.61360000000001 17.7618 366.01
-64.67270000000001 37.3173 366.01
-73.9117 42.6483 366.01
32.005 78.485 170.18
47.18 62.165 170.18
40.39 70.09999999999999 187.96
-89.92 95 254
-93.98 88.90000000000001 241.3
-77.72499999999999 100.967 247.65
-130.172 -104.585 354.455
-138.555 -107.887 336.55
-142.49 -87.63 342.9
-129.54 -136.91 342.9
-134.11 -127 330.2
-73.58280000000001 -127.43 366.01
-108.089 -108.089 366.01
-27.7168 15.9931 366.01
-26.5255 26.5084 366.01
-17.6837 17.6722 366.01
6.75028 -11.6897 366.01
-10.8089 -10.8089 366.01
-6.63185 11.4781 366.01
-0.017866 -93.999 366.01
22.35 -83.31 366.01
-14.1495 -52.8428 366.01
-0.007146 -37.5996 366.01
68.6425 -9.0175 298.45
71.12 2.03 292.1
66.8 -19.81 304.8
65.5325 -8.699999999999999 311.15
68.06999999999999 -20.32 279.4
67.81999999999999 -16.26 266.7
66.3575 -27.815 273.05
46.2925 -35.115 354.455
42.16 -24.38 366.01
-36.7914 -63.7154 366.01
49.28 -46.74 342.9
45.785 -61.085 336.55
41.085 -53.0225 354.455
40.64 -40.64 366.01
-18.415 -133.41 298.45
-3.56 -131.57 304.8
3.56 -128.52 292.1
2.79 104.14 254
11.8725 97.1525 247.65
-27.18 114.3 254
-15.1775 109.027 247.65
-15.6225 110.935 260.35
54.86 54.86 152.4
61.5925 47.6225 132.205
62.99 36.32 152.4
0.003598 15.4999 19.05
-4.02935 14.9911 19.05
-16.1925 105.98 229.745
-33.27 112.01 241.3
-46.5498 80.6263 19.05
-56.7137 56.7497 19.05
-3.89164 -14.5022 19.05
-8.520530000000001 -14.7556 19.05
-7.78329 -29.0045 19.05
-12.4434 7.19195 19.05
-7.75831 13.4377 19.05
-68.0565 68.0996 19.05
-110.115 29.4956 19.05
-116.211 0.031599 19.05
-101.685 0.027649 19.05
-113.79 30.48 112.01
-82.5868 22.1217 19.05
-110.555 -143.192 336.55
-109.727 -141.987 323.85
58.93 36.32 241.3
61.5975 25.8425 247.65
69.84999999999999 20.83 292.1
67.94750000000001 28.64 285.75
59.31 25.8425 229.745
59.69 16 218.19
62.3575 9.08 229.745
-93.72750000000001 -120.967 43.305
-72.39 -125.22 67.56
-54.42 -128.525 43.305
-129.16 -54.3575 89.785
29.374 0.015799 19.05
28.762 -7.7042 19.05
-14.2464 -8.226050000000001 19.05
-123.88 33.1825 19.05
-112.52 65.02 67.56
-92.70999999999999 92.70999999999999 67.56
-97.2825 74.73999999999999 89.785
30.2375 -30.2052 19.05
42.3811 -24.5103 19.05
28.254 -16.3402 19.05
59.94 -59.94 187.96
61.9775 -48.1325 203.075
66.55 -38.35 187.96
13.335 -107.635 170.18
26.42 -98.3 187.96
68.325 8.955 170.18
27.69 -103.38 67.56
37.53 -92.5825 43.305
13.845 -112.712 43.305
-12.088 44.9735 19.05
76.70999999999999 20.57 67.56
71.63 41.4 67.56
72.645 30.3525 43.305
69.5975 -29.21 170.18
64.515 -50.1 170.18
73.41 -19.56 152.4
73.66 0 152.4
75.81999999999999 -10.0975 132.205
59.625 24.8275 203.075
24.64 91.69 112.01
11.875 92.83499999999999 132.205
66.0425 -27.875 203.075
64.52 -37.34 218.19
61.215 -46.165 229.745
14.635 3.9199 19.05
-19.4582 -72.51130000000001 19.05
-15.5665 -58.0091 19.05
0 -124.71 19.05
-17.145 -125.16 43.305
-82.4843 -82.4743 19.05
-99.7253 -57.5823 19.05
-113.971 -65.80840000000001 19.05
-70.09999999999999 -121.16 112.01
-32.51 -121.16 112.01
-52.1325 -123.255 89.785
-106.051 -106.038 19.05
-68.16419999999999 -118.044 19.05
-94.26779999999999 -94.2564 19.05
-105.66 -105.66 112.01
-88.645 -114.362 132.205
-3.56 -126.49 279.4
14.285 -116.077 273.05
3.3 -122.94 266.7
-102.997 -131.765 285.75
-104.332 -133.605 298.45
-87.38 -141.99 304.8
-75.95 -131.57 218.19
-73.66 -127.76 187.96
[...]
POINT_DATA 1058
SCALARS scalars float
LOOKUP_TABLE dummy
3.71216
3.77319
3.8405
4.47201
4.43622
4.49062
4.30775
4.32171
4.30289
3.62394
3.51984
3.57846
3.86897
4.00164
3.98687
3.7491
3.72937
4.50268
4.42043
4.4099
2.01257
2.27051
1.919
2.88403
2.95494
3.10757
1.68824
1.22896
2.58929
4.31855
4.34443
4.2949
4.35894
4.34031
4.33748
4.02888
3.92965
4.08241
4.34396
4.35106
4.34076
4.35936
4.36671
4.9068
4.6226
4.55937
4.31455
4.24083
4.21197
4.27538
4.26474
4.28267
4.31414
4.31943
4.3158
4.5613
4.5711
4.49226
4.10017
5.24957
4.64268
3.87244
4.47955
4.40963
4.33618
4.34199
4.34872
4.26227
4.25241
4.29787
3.25414
3.18607
3.22262
2.83503
2.80329
2.65471
4.29195
4.27376
4.3503
4.33808
4.32311
3.62539
3.41724
3.76267
3.3498
3.31929
3.39975
7.1473
7.07495
6.92049
4.34213
4.36122
4.34238
4.35468
4.979480000000001
5.27618
5.13371
4.48449
4.62436
3.21823
3.38775
3.1487
4.32999
4.32719
4.32629
4.38393
4.31564
4.65015
4.53572
4.5565
4.3393
4.39744
4.39062
4.39648
4.36979
4.35351
4.36463
4.37451
4.36051
4.37437
4.41212
4.41505
4.38389
4.47427
4.27574
4.20042
4.23576
4.28913
4.2242
4.38287
4.37353
4.38343
4.3837
4.3834
4.3899
4.37049
4.36968
4.38034
4.37793
3.24714
4.31679
4.31965
4.25459
4.20308
2.64869
2.74092
4.16667
4.25498
4.19402
2.96737
2.77644
2.88379
4.35725
4.34796
4.35307
4.14008
3.99498
4.08187
4.61436
4.59089
4.54257
3.88194
4.32213
4.31823
4.12607
4.20176
4.19841
3.17807
2.99812
3.03129
4.46147
4.40124
4.34153
4.31929
4.34083
4.29117
4.31715
4.32455
4.31275
4.23916
4.25897
4.24496
4.23923
4.26587
4.26006
4.27546
3.26875
3.19278
4.69765
4.76424
4.6328
6.9272
6.02106
6.4035
2.79838
3.07957
3.37143
4.51692
4.6159
4.65202
4.38779
4.32085
4.34734
5.40872
5.25883
6.48275
6.06906
6.5434
2.70898
2.60655
4.20934
1.28669
0.851367
1.23984
3.65639
3.59762
2.69045
2.69554
2.74994
2.47564
3.71404
4.78217
4.07523
1.67762
1.67767
1.36968
3.52266
3.41947
3.3339
2.98076
0.430296
0.61638
0.506885
0.8313729999999999
2.3474
2.42599
4.03449
4.07819
3.95063
4.68743
4.780250000000001
4.06302
4.19926
4.09632
4.2934
4.27952
3.83397
3.81328
4.23174
4.27218
4.283
4.28343
4.24432
4.1482
4.0155
4.35307
4.11221
4.32179
4.34762
4.62265
4.61265
3.94817
4.01199
4.2498
4.26792
3.85174
3.87474
3.86144
3.64621
3.54061
3.7322
3.79919
4.83845
4.83252
5.05734
4.47165
4.48548
4.55308
3.11604
3.15309
3.19094
3.07137
3.11992
2.86426
3.04759
3.20854
3.38338
3.12476
2.11235
2.46293
2.84731
2.14259
1.86768
2.17267
1.93663
3.00659
4.60584
1.54817
2.05599
2.64944
3.41888
2.18523
1.22735
1.47273
2.54165
0.964379
1.01676
1.28138
1.35744
2.59297
2.44711
2.42085
5.15834
5.33972
4.82394
4.971
4.89131
4.66062
4.53786
4.6089
4.34129
4.33959
5.00201
4.83253
4.37279
4.35706
4.31204
4.31033
4.29646
4.32961
4.33694
4.35971
4.31845
4.29158
4.29484
4.32116
4.32025
3.02982
3.05546
6.70576
6.79468
5.73791
6.36508
6.07476
5.40277
5.44889
4.21996
4.20218
4.2204
4.2139
4.33608
4.32883
4.31454
4.31819
4.34852
4.37188
4.37225
4.30891
4.31834
4.32059
4.02932
3.96987
4.19883
3.92286
3.79832
4.591
4.24149
4.26387
4.24393
4.36445
4.37739
4.39357
4.37089
4.32646
4.19536
4.38629
4.47166
4.39679
5.16711
4.49481
4.56588
4.2272
3.8554
3.39376
4.33399
4.25534
4.26753
4.2411
4.23041
4.23495
4.24803
4.24292
4.12121
4.12956
4.17373
4.22793
4.22576
4.22926
4.12655
4.05985
2.57515
2.4158
2.63047
3.20727
3.14526
3.03481
3.56218
3.76903
3.69729
3.39103
3.40668
3.27936
3.40104
2.91696
2.99189
3.04492
4.26926
4.26141
4.29835
4.26465
4.22909
4.23623
0.473377
0.457632
0.769969
4.4964
4.45726
4.43002
4.37328
4.6547
4.68346
4.36858
4.35592
4.35977
4.36759
4.37143
4.44534
4.44256
4.35725
4.34345
2.3861
1.60824
1.67699
2.02575
0.771748
2.95366
2.87508
2.7674
2.24749
2.50708
2.39365
4.26319
4.75447
5.02239
5.41602
4.29174
4.29138
4.2119
0.330563
2.89515
2.05328
1.39584
1.30517
4.36575
4.3876
5.86438
6.68089
6.87411
6.4693
5.64857
6.05878
5.41546
4.49692
3.45389
2.00918
1.79668
3.57118
1.94177
1.48303
1.64711
4.26271
5.38105
5.01419
5.53102
5.65749
6.22829
4.84136
4.65052
4.65285
0.959279
0.452282
2.8238
2.65663
2.60315
3.35305
3.45571
3.53048
1.63085
1.97438
1.80809
2.77102
1.06758
0.8566800000000001
1.11827
3.60708
3.45637
3.49233
2.66049
2.52084
3.17498
2.79885
2.7312
2.82033
2.99427
1.8712
2.01415
4.03713
4.12096
4.41113
3.05202
4.42168
4.42177
3.89139
4.17826
3.1846
2.9478
2.88031
4.26001
4.31265
4.35486
3.17689
3.24331
3.31857
3.17084
1.17856
0.644724
2.30391
1.95954
2.19219
4.33041
2.72726
2.67316
6.27537
6.59096
5.72197
5.95959
6.16558
3.99141
4.3143
4.33705
4.35604
4.33289
4.32494
4.3603
4.33105
3.1404
3.41743
2.69874
4.20901
4.23357
4.24477
4.24504
4.2377
4.25055
4.3421
4.33797
4.22781
4.2077
3.88207
3.63468
4.3551
4.27978
4.25524
1.1343
4.35057
4.34352
4.43788
4.41331
4.40585
0.476818
0.598591
0.75192
0.7734409999999999
1.2635
3.05254
2.98921
3.31155
2.14508
3.83374
7.18565
6.10746
7.04196
4.14631
4.24036
4.22111
3.40455
2.90429
3.43299
3.60681
3.14553
2.3026
2.29737
2.22536
2.2833
1.98774
5.14155
4.07743
3.91945
4.05244
4.15386
4.17703
4.57496
1.46397
1.59048
1.48279
1.4705
4.89006
4.37344
4.37809
4.76276
4.70497
4.54595
4.33079
4.31576
4.3002
4.39746
4.41259
3.61317
4.80674
4.29601
4.29262
4.29911
4.26572
4.39565
4.3862
4.31381
4.25794
4.27567
4.28821
4.29979
4.30409
4.28906
4.00556
2.23731
2.57974
3.80571
3.48277
3.33862
4.25313
5.04524
4.4087
4.42677
1.27751
7.12861
0.9649359999999999
4.50124
4.53188
3.94155
4.00004
1.61
3.09821
2.5538
3.4121
2.87589
3.46815
3.11778
5.12216
4.32086
4.72206
1.80376
1.79157
2.11807
4.33396
4.38889
2.91473
2.89506
3.65981
2.22126
2.54878
2.5397
4.2932
4.12058
4.15597
4.05389
4.32228
4.23282
4.20581
4.26607
3.88879
3.9709
3.87248
3.72967
3.73147
1.82164
4.39236
4.40296
4.30134
4.22194
1.62659
5.60378
2.24223
4.15032
4.05491
3.77302
3.71884
4.02168
1.67492
1.25031
0.8564189999999999
1.61359
1.61699
4.52105
4.43808
4.37218
3.94004
3.89579
4.89649
2.11905
1.85575
4.78803
4.96059
4.18759
4.24681
4.24232
4.28031
3.60494
2.44257
2.7944
2.65328
3.76354
3.98099
4.53848
4.50623
4.46645
4.44185
4.68077
4.34186
4.35723
5.01013
4.49492
2.01297
3.48853
3.64595
3.43451
2.49579
1.85957
3.31813
3.67089
3.83165
3.73908
3.2658
3.44071
4.28234
4.27035
2.81342
3.12712
4.93871
4.81459
4.30153
4.21061
4.22207
4.3184
4.33985
3.97522
4.08363
4.0587
4.18568
4.22209
4.3414
4.41784
4.28146
4.36052
2.27449
2.24499
2.80525
3.15223
4.79884
4.71604
4.52065
4.73536
4.85457
3.23893
2.628
6.26858
3.50362
2.91365
0.874802
3.47148
3.58735
3.7009
2.51624
2.75176
2.74033
1.84376
3.22563
3.11176
3.83549
3.98904
3.85116
3.22355
1.71103
4.88654
4.15319
4.73596
4.9168
4.78503
1.63513
3.42902
4.37935
6.75787
3.82392
4.44443
4.60347
4.27872
2.3485
2.23398
2.13033
1.9649
4.29712
2.90746
2.49187
2.26808
2.26375
5.7198
5.31678
4.45901
4.45007
4.1814
4.29592
4.31298
2.21637
4.38254
3.41087
3.66696
3.09159
4.28271
3.83537
5.16017
5.63543
5.85079
5.80481
3.90647
4.41397
4.45005
4.32787
2.06723
3.82909
3.70536
4.28186
1.76518
2.55343
2.13198
2.36888
1.64416
4.03917
4.30624
2.5392
3.76711
5.1089
5.11957
5.37167
5.29568
5.25164
5.33205
5.63492
4.11107
4.07749
2.56227
2.55588
2.3845
4.33165
4.31795
4.38197
4.39239
4.38876
4.38607
4.22379
4.57841
3.57462
3.68724
3.65276
3.47855
3.93992
3.88198
2.80431
3.07311
2.97806
4.14035
1.37703
2.47485
2.43951
4.37079
4.36135
4.38828
4.38546
4.38808
3.44621
3.50975
3.46476
2.37858
4.09873
4.04719
4.18079
3.45834
3.65127
3.60559
3.53674
2.66304
4.04861
3.5956
2.85446
4.26581
3.09212
2.18363
4.15693
4.23009
4.35598
6.52677
4.1989
4.28294
4.29007
4.30907
5.791230000000001
4.29733
4.31477
3.88977
4.27008
4.20314
4.17295
4.25869
4.27009
4.26335
3.23499
2.64318
2.57521
2.68478
2.74937
4.06302
3.95694
3.15451
3.0688
2.85945
4.13924
3.06978
3.41207
5.51829
4.47869
4.54511
3.17453
3.22609
3.01269
4.85157
4.64407
4.33234
4.47775
5.01144
4.29058
4.27958
3.27717
3.75007
2.58259
3.29943
3.49507
2.55188
3.94185
4.45965
2.45776
2.36515
4.31211
4.37956
4.3043
4.28469
3.54996
4.28315
4.35886
4.24863
4.38294
3.64102
5.21431
6.28069
3.71116
2.16217
4.12203
4.41399
4.33931
4.28696
3.46767
4.46347
4.40271
3.30552
3.43213
3.49086
1.30098
3.22466
3.19965
2.91182
2.967
3.35109
3.38192
2.8569
3.59426
3.27286
4.60429
2.97025
4.32879
4.34515
4.39941
3.74201
4.0914
4.23294
4.36118
4.48014
3.90151
3.87374
4.00701
2.16069
4.13323
3.29584
4.32244
4.31207
4.32963
3.94863
3.60762
4.3568
3.26743
3.60716
4.10984
4.37172
4.10686
4.13878
4.41674
3.32409
3.305
4.28903
3.34596
2.72685
3.58703
5.59877
4.04019
3.38686
3.31785
3.50406
3.93254
5.82755
3.34877
2.58166
3.27736
6.09616
4.32583
4.27112
4.30228
3.8277
3.52123
4.28702
3.71863
4.22407
4.27705
4.22706

