# vtk DataFile Version 2.0
generated by FAnToM (SaveTensorField)
ASCII
DATASET UNSTRUCTURED_GRID
POINTS 1738 float
1.57149 23.0441 280.643
-1.69616 22.8716 284.986
3.49532 25.0157 286.608
-14.0565 9.29261 294.35
-14.29 9.07799 293.899
-14.1643 8.990740000000001 294.415
25.1709 6.61171 255.628
23.4949 11.3816 257.882
27.5308 8.74114 258.646
-14.3992 8.625489999999999 294.401
-14.7764 8.1774 294.509
-14.3124 8.41977 294.967
21.5541 20.0823 303.604
21.6833 19.6585 305.235
22.3388 19.0619 304.343
33.5989 10.1782 310.208
32.4162 10.7262 308.97
31.9391 10.3723 311.347
19.0253 14.7506 259.564
14.1666 16.8612 262.124
19.6582 18.2887 264.853
38.1293 5.72807 312.816
34.9 9.17803 311.669
33.7981 7.98213 314.813
-8.96819 -19.1997 299.309
-6.26787 -16.4757 300.437
-9.642519999999999 -16.9986 298.075
13.047 -23.3566 310.11
14.1968 -25.4586 310.776
15.1792 -24.4244 310.921
-1.99824 20.0448 297.616
-3.05018 18.6425 298.168
-2.9056 18.449 298.469
38.7388 5.74536 310.914
39.375 5.10502 310.779
39.207 5.62962 309.789
19.7381 -27.6707 310.891
20.5653 -29.4511 310.917
21.0852 -28.6959 311.505
29.1478 -23.7482 312.253
31.8154 -25.4019 312.67
28.9973 -21.3442 312.187
21.1902 -27.727 311.642
20.3887 -26.7267 311.545
3.07369 -33.9673 283.082
-0.7211259999999999 -31.9834 285.362
0.0105331 -30.9183 281.197
3.14585 -20.5741 262.762
5.1915 -24.3521 264.902
0.9795109999999999 -22.3117 266.865
16.9451 -37.2123 310.315
16.0308 -35.4636 310.542
14.5372 -36.4957 309.854
15.7819 -32.534 310.99
14.8595 -33.6769 310.76
16.3985 -34.2183 310.958
13.9035 -32.2547 311.059
11.9294 -31.8563 310.247
13.2293 -33.4493 310.355
34.1351 14.9542 291.574
29.9225 18.508 294.596
32.6131 14.8651 296.793
14.2508 20.551 268.188
18.735 22.0052 273.115
18.6693 20.3105 268.836
1.35051 -36.7289 300.015
0.265982 -36.1028 299.902
0.8392200000000001 -36.3827 299.39
26.5262 17.6938 270.637
22.2271 19.6396 269.461
24.1678 20.214 274.383
36.1996 11.6813 289.145
34.8452 14.3764 286.682
14.0877 -22.3227 310.325
11.9533 -21.3493 309.435
-16.6497 3.92668 295.938
-16.6625 4.804040000000001 295.611
-16.6043 4.12865 294.97
1.23569 -29.624 276.658
4.42221 -32.566 279.161
-10.671 -0.0271844 299.515
-9.50029 0.6377269999999999 300.329
-10.7213 1.52783 299.726
-16.4879 5.05777 293.78
-16.6209 2.87016 294.313
17.8666 -34.8531 310.99
17.3944 -33.2661 310.884
22.0108 -28.6912 311.748
-12.8258 11.2033 283.084
-13.0264 7.7676 279.835
-14.7121 5.63682 282.986
-7.01174 11.616 300.022
-6.57164 12.5167 300.047
-7.5413 12.6019 299.68
-7.77673 8.62107 299.494
-7.2028 7.18217 299.772
-6.58488 8.38191 300.344
43.1771 -12.6965 291.443
42.5598 -16.1517 288.606
43.069 -11.8074 288.219
-0.8399789999999999 -34.5049 297.453
-1.06017 -34.4146 298.227
-1.355 -34.0838 298.139
20.2295 24.5845 284.565
22.0265 22.9475 279.13
16.1409 24.6242 279.602
6.43447 24.4358 296.237
10.633 23.5673 299.466
10.7328 25.3419 293.583
6.03256 -4.39014 253.429
5.61489 1.75348 253.73
10.592 -0.650775 252.664
30.2272 -18.3634 265.08
30.6818 -20.9143 268.472
27.971 -21.6764 265.666
16.0698 -2.82522 251.488
14.826 2.9334 251.985
26.206 13.9695 307.54
23.5767 12.0487 308.235
23.9986 10.9491 309.061
-11.4614 -6.79592 299.618
-10.9249 -7.18962 299.826
-10.6599 -6.46701 299.971
4.55219 -3.90916 307.134
6.77184 -2.31047 308.062
4.92469 -1.28726 307.184
10.1407 5.21718 253.187
19.6509 -17.6175 311.172
20.1725 -19.5903 311.226
21.2658 -18.7732 311.227
-11.6061 -10.3867 298.519
-12.4155 -10.4383 298.557
-12.1497 -10.8724 298.254
6.46645 10.9224 257.749
9.021699999999999 14.3438 259.881
10.1598 9.980420000000001 255.686
14.5401 21.4923 302.752
19.2411 20.3885 305.393
19.391 21.9864 301.123
-5.15867 5.54057 265.489
-4.83693 2.06702 263.451
-8.39039 1.44332 268.291
42.4998 -17.9392 297.379
43.4067 -14.6117 298.11
42.8595 -17.9769 301.054
18.5608 5.06936 252.531
19.209 1.25486 251.899
-3.39781 20.3021 279.017
-6.1537 19.8048 283.456
11.194 15.4572 305.517
10.5368 16.8277 304.287
9.314399999999999 15.1006 304.569
34.8151 -12.9981 315.106
33.5654 -10.9865 314.641
33.2341 -13.0041 314.161
5.73804 -34.0118 305.832
4.23484 -34.4188 304.924
5.3785 -34.9135 304.791
23.1411 15.0523 261.928
24.9715 16.6843 266.038
-7.77993 16.7036 278.595
22.7415 -29.6668 311.718
23.7139 -29.6535 311.883
23.0699 -28.8045 311.786
4.27743 -38.87 300.168
4.30614 -38.5203 300.673
3.97239 -38.6559 300.086
-3.45586 -29.3549 288.064
-3.22454 -30.3753 291.753
-5.95132 -26.5745 291.274
26.3276 14.1809 305.388
26.0267 15.3385 304.004
24.7396 16.9596 304.803
22.153 -0.824673 310.936
20.2721 0.6763779999999999 310.728
19.5658 -1.90943 311.044
24.4363 -6.72073 311.154
22.5994 -7.91713 311.159
24.871 -8.44476 311.15
22.4565 -22.3641 311.467
23.1213 -23.9093 311.597
23.8458 -23.1168 311.604
8.442 -18.3047 308.34
7.09149 -19.6184 307.647
9.64029 -20.4369 308.57
12.2164 13.4669 306.031
13.0984 15.9075 306.593
22.8752 -19.872 311.316
22.5233 -18.0447 311.21
-0.5367459999999999 -35.2155 299.28
-0.45519 -35.3274 300.471
-12.9773 -10.4737 297.585
-13.1615 -9.990080000000001 297.54
-12.7767 -10.3333 297.15
5.77398 -25.7321 307.094
3.79816 -25.2992 305.591
5.16211 -27.1232 306.156
2.50646 -34.9774 287.136
2.2294 -35.5831 290.887
-1.11949 -32.8977 289.301
30.0535 -28.5926 312.501
28.7436 -27.8437 312.296
28.3198 -29.5497 312.163
-2.9778 -31.8863 297.299
-3.39576 -31.381 297.76
-3.43207 -30.981 296.446
0.624235 -36.1691 300.871
14.3314 -23.3762 261.056
17.6772 -19.3023 257.941
20.7414 -21.9078 261.489
14.7013 -34.849 310.521
15.5056 -34.543 310.699
23.8731 -27.1964 311.817
24.3635 -26.4638 311.826
23.2195 -26.0671 311.716
1.70672 -17.5 305.643
4.09184 -18.6726 306.564
3.37847 -16.357 306.449
2.736 0.00472623 306.005
2.61801 -2.849 306.098
-13.5587 -9.420020000000001 295.955
-13.2219 -9.90443 296.449
-13.6561 -8.71743 296.839
-2.91023 -27.6249 279.61
-5.11969 -23.7106 278.617
-2.03119 -25.8432 275.57
3.50401 -29.3855 274
5.69736 -31.1077 275.395
-13.1244 -9.72504 298.78
-13.3157 -10.1091 297.88
-12.6294 -10.0349 298.837
-10.4933 -5.64265 300.073
-11.3155 -6.04145 299.696
-2.72746 17.3553 298.852
-12.8934 5.45896 296.991
-12.1433 6.05373 297.057
-12.8875 6.32366 296.592
-0.368105 14.8409 299.501
0.528367 15.7199 299.7
-0.596735 16.2722 298.883
-13.9295 -1.28554 297.544
-13.8218 -0.244093 297.889
-14.7366 -0.640367 297.33
7.36309 0.577116 307.819
-14.9875 -2.2277 296.731
-15.2296 -2.54685 296.498
-15.0058 -2.78663 296.635
-13.648 -2.76797 297.363
-13.1513 -2.05869 297.674
-14.2197 -2.20891 297.19
-13.6799 6.61799 296.096
-12.9814 7.05058 296.197
-13.5397 7.32976 295.815
27.5046 14.3241 303.758
22.9719 18.8584 303.267
-13.0127 12.502 295.168
-13.1779 12.0384 295.272
-13.1273 12.259 295.806
-14.8286 8.162800000000001 293.797
-14.9344 8.22198 292.318
-11.5207 15.5332 287.43
-8.21697 18.7443 287.016
-10.0971 16.1804 283.053
6.58812 -34.8791 305.221
7.34621 -34.0024 306.368
16.4432 -40.5944 296.915
10.7687 -40.1853 295.926
14.6302 -39.6404 292.119
34.8308 -11.3996 315.346
25.1164 -23.7565 311.739
24.6886 -22.3803 311.625
-4.68604 21.8333 289.105
-7.50309 19.5819 292.449
-1.10236 22.5179 295.291
-13.8123 -8.96383 287.08
-11.172 -14.1796 285.387
-12.9113 -12.9382 290.154
-15.5259 -6.30792 290.792
-14.3085 -9.482850000000001 290.387
-14.3926 -9.267799999999999 293.272
42.3002 0.822325 294.484
40.8588 3.57157 296.545
42.5632 0.791334 298.366
41.0357 3.28783 308.877
42.346 1.35314 307.99
41.1764 3.91358 306.505
42.766 -4.56623 313.278
41.5759 -4.96437 315.652
41.6751 -9.916779999999999 315.111
38.3197 7.92184 288.595
38.7986 6.22645 283.673
37.0343 10.6046 284.949
43.4525 -0.883034 307.202
42.5803 1.49183 305.315
26.3988 -31.9958 277.111
27.6282 -29.6215 273.493
30.6969 -29.7856 277.032
5.92325 -39.2244 301.249
6.6055 -39.5662 299.7
7.6529 -39.3977 302.782
16.937 -35.0988 310.799
-14.0682 8.830080000000001 294.739
-13.9814 9.162750000000001 294.614
-9.901870000000001 -7.02607 300.272
-8.75404 -5.89689 300.813
-9.89687 -6.1008 300.319
-13.8656 -6.02479 298.695
-14.4509 -6.2893 298.017
-13.7338 -6.63987 298.713
25.2238 -18.6102 311.591
25.0779 -16.7092 311.545
23.8274 -17.3708 311.168
24.399 -24.4886 311.715
35.8126 -13.5335 315.589
35.7136 -14.673 315.33
24.8905 -27.4755 311.917
24.4389 -28.1737 311.901
25.3578 -28.3539 311.992
11.7507 25.8838 283.63
15.9569 25.7157 285.278
10.1839 24.6418 277.878
13.4437 23.1713 273.84
7.8436 21.65 271.333
3.32987 -21.8819 306.26
5.5361 -20.9909 307.272
3.5458 -20.2598 306.641
3.13085 -25.9539 268.943
24.0806 -28.7005 270.812
27.7457 -26.5357 271.081
-10.3286 -21.0068 294.676
-9.2995 -21.7337 290.37
-8.69206 -23.8564 295.614
1.57044 -27.4835 272.782
40.1804 4.51597 309.948
40.0443 5.15698 308.235
0.999925 -36.3764 297.051
2.87856 -37.6655 298.544
1.45468 -36.8163 298.869
1.77909 -36.4293 294.138
-1.05202 -33.6159 293.001
30.743 -26.5346 274.21
30.593 -23.4891 271.562
33.5767 -29.0594 280.624
35.6431 -28.1065 284.634
32.1672 -31.0625 284.465
29.1193 -34.3415 305.956
27.0305 -36.1008 305.753
27.9392 -36.4642 303.135
-4.27856 -24.7765 302.419
-5.46307 -24.5557 301.773
-4.64092 -25.8507 302.139
22.3742 19.9771 301.521
25.274 -35.4422 311.057
25.7568 -34.9319 311.51
24.2362 -34.7078 311.652
31.7218 -32.7398 303.953
30.2149 -34.9073 299.652
26.125 -37.9935 300.278
33.5008 -22.9884 275.002
21.0508 -24.2806 311.465
19.3112 -23.6222 311.305
20.5719 -25.4436 311.483
35.5277 -30.0977 300.926
33.3277 -32.1833 296.003
24.4653 -36.9315 288.317
27.6083 -35.8008 290.334
24.8493 -37.364 291.599
33.2227 -31.7546 291.721
36.5006 -28.889 293.117
7.68582 -27.4218 267.296
9.897640000000001 -25.601 263.834
11.5992 -27.8727 266.299
24.8358 -25.8417 268.974
24.0589 -24.0111 265.263
27.8316 -23.9491 268.4
-4.33059 -22.3578 274.986
-2.243 -19.63 303.705
1.53935 -19.651 305.462
-2.43852 -16.8293 303.387
12.4132 -34.8901 280.739
9.17577 -33.3993 277.796
14.0706 -33.4329 277.003
-7.00499 -19.1887 277.764
-14.0695 9.871930000000001 293.262
-13.5055 11.2521 293.527
-14.1667 10.3178 290.985
-7.47685 -4.43237 301.428
-6.94747 -5.99566 301.191
-11.2411 -2.4083 298.733
-12.0125 -1.78956 298.317
[...]
POINT_DATA 1738
SCALARS scalars float
LOOKUP_TABLE dummy
6.12499
5.00999
5.42499
3.321
3.53678
3.36292
11.195
16.515
11.05
3.45421
3.48072
3.32336
2.28225
1.95297
2.20366
-1.44968
-2.615
-2.30499
22.87
19.93
24.04
-1.085
-2.04999
-1.90499
0.0699992
1.49376
1.03339
0.793868
0.5984229999999999
0.6095729999999999
2.29258
2.40837
2.40573
0.0233415
0.303274
0.4812400000000001
0.121844
-0.0749915
-0.0298365
-0.352591
-0.952025
-0.107294
0.04927869999999999
0.168341
0.5750000000000001
0.865
1.685
3.775
3.325
3.745
-1.52581
-1.09927
-2.62999
-0.195583
-0.447835
-0.564361
-0.0806591
0.040309
-0.360326
10.635
6.71
6.805
15.625
14.01
20.255
-0.443661
-0.764999
-0.3965400000000001
24.2794
24.69
19.085
14.855
16.67
0.8001889999999999
0.945248
3.33768
3.38155
3.4476
2.145
1.32
2.77643
2.74187
2.82634
3.355
3.52241
-0.693341
-0.327875
-0.0864158
5.46499
6.27499
5.50499
2.85536
2.84618
2.87844
2.8615
2.83082
2.81655
2.38
1.265
3.555
0.101644
0.0888105
0.109326
7.58999
13.09
9.24999
2.54
3.05
4.8
6.60499
8.13499
7.81999
-0.949997
-1.31999
-0.864995
6.59373
8.82499
0.0108377
0.585772
0.371247
2.48824
2.42715
2.46561
2.00901
1.96478
2.08549
10.275
0.681206
0.577078
0.545238
2.18636
2.25516
2.19832
13.835
18.455
14.695
1.295
0.210002
3.26071
7.81999
7.39499
6.87499
0.895003
3.21
-0.354996
9.83999
7.28999
7.27999
5.37499
2.22245
2.24671
2.29855
-0.46308
-0.340943
-0.235092
-0.315362
-0.4416100000000001
-0.716432
20.465
24.78
6.88999
-0.227204
-0.30797
-0.174819
-2.235
-1.13272
-1.30595
1.09
0.26
1.085
-0.0243693
0.9868600000000001
1.0015
0.847876
1.01739
1.04851
0.6292219999999999
0.7351989999999999
0.580249
0.3116
0.180825
0.175139
1.21645
1.19732
1.07654
2.13884
2.14376
0.404976
0.497367
-0.049438
-0.195021
2.31271
2.35408
2.32596
0.790288
0.807971
0.650257
0.0650005
-0.534999
0.12
-2.105
-1.14556
-1.24762
0.212452
0.224353
0.213404
-0.379156
1.65
1.445
0.470001
-1.00383
-0.7690049999999999
-0.110049
-0.09579829999999999
0.02928
1.44391
1.32644
1.47572
2.22607
2.12848
2.29837
2.36557
2.29766
2.755
3.535
3.45
1.88
1.55355
2.36853
2.35445
2.30384
2.51314
2.53379
2.44095
3.05107
3.01998
3.07004
2.51492
2.47084
2.43868
2.92009
2.92797
2.98627
2.0378
2.98342
2.98324
2.96693
2.87882
2.86218
2.9247
3.14216
3.08941
3.14965
0.225001
2.4021
3.25005
3.22183
3.04616
3.64021
3.92384
4.655
4.784990000000001
5.42999
-0.731503
-0.355498
-3.53999
-2.97999
-4.02999
-0.5948869999999999
0.0365244
0.157275
4.195
3.87507
2.5
4.22499
3.59
2.95619
3.38
3.075
2.78363
9.62499
8.65499
6.40043
1.36211
1.425
2.48715
-0.391407
-1.82038
-1.69999
14.84
15.86
19.32
2.375
4.36
-3.60499
-2.93999
-3.03499
-1.38824
-1.7361
-1.90645
-0.79305
3.28895
3.21763
2.37641
2.39196
2.44693
2.68644
2.68777
2.63059
0.322486
0.402801
0.449537
0.0457707
-0.622566
-0.508767
-0.229441
-0.243292
-0.363804
7.50641
7.28499
9.19999
12.34
11.065
1.11314
1.16098
1.23653
3.36
-1.99999
-2.55999
0.9599979999999999
2.055
0.434999
2.37
0.265002
1.26652
-0.239361
-0.7724700000000001
-0.411489
-0.794999
-0.174998
-2.71499
-2.17499
-2.96999
-2.38999
-3.06499
-2.06217
-2.33376
-3.05999
0.524123
0.359563
0.250393
3.09635
-1.45924
-1.34445
-1.15475
-2.31499
-3.48499
-4.10999
-1.76499
0.294287
0.430902
0.2499
-1.74499
-3.32499
-4.27499
-3.82999
-3.99499
-3.43999
-2.53499
2.27686
2.465
1.595
-1.675
-1.22
-2.12999
4.34499
1.31193
1.298
1.54918
-0.949997
0.8300000000000001
-1.455
4.62999
3.68643
3.65918
4.0912
2.42818
2.30743
2.75171
2.8057
2.775
8.86999
9.069990000000001
8.47499
3.9762
4.64999
3.66875
6.27999
6.83499
6.42999
13.495
11.56
4.96
5.93499
6.48999
13.125
3.535
5.14
12.03
11.45
13.3204
12.605
14.84
20.235
6.98999
7.92999
-0.8641559999999999
-1.175
2.23335
2.19848
4.04327
2.945
5.295
3.77936
1.29
-0.439998
0.691638
0.8071119999999999
0.353836
0.306022
5.88
7.87999
0.98
0.365
3.82499
3.90064
3.70941
-1.99
-0.0099983
5.60499
6.35499
2.86586
2.81921
2.88516
5.83999
3.16895
3.38229
3.94587
4.65
5.80499
-1.39275
-1.24075
0.226057
0.326422
2.31384
1.67852
1.73463
1.51041
2.17317
2.02694
-0.634261
-0.6370169999999999
-0.760415
0.115401
-1.04645
-0.8629749999999999
-0.895258
-1.64999
-1.52999
0.229805
0.350594
0.262173
-1.01946
-1.49757
-0.809557
-1.11367
0.299889
-0.6774669999999999
-0.8161339999999999
-0.712892
0.113068
-0.0733307
0.164943
-1.01
0.481365
0.480812
0.246384
0.108705
0.249251
0.284584
0.285026
0.442321
1.03568
0.874922
0.9777819999999999
0.725
-0.134999
1.225
2.89483
2.89455
2.90196
2.77021
2.79617
2.82178
1.02876
1.13234
0.9755419999999999
1.53817
1.39672
1.58816
2.56296
2.48714
2.54251
1.06974
0.908891
1.92799
2.03926
0.997498
1.05546
-0.464773
-0.546307
-0.651056
0.562206
1.34759
0.160103
-0.654718
-0.5366200000000001
2.225
2.25
-1.955
-1.33581
-0.0730343
0.0508906
0.08183059999999999
0.0788552
-0.43
0.0407018
-1.09548
-1.1139
-0.530439
-0.30295
-0.261251
-0.713747
-0.498076
0.9473149999999999
0.9650300000000001
-0.0765957
-0.0852793
-0.280656
-0.5264179999999999
-0.5620579999999999
-0.6654600000000001
-0.276172
-0.534233
-0.268385
-0.535637
-0.475024
-0.335754
-0.301917
-0.398907
-0.267971
-0.379666
-0.5665319999999999
-0.606974
-0.281556
0.757724
0.726588
-0.838708
0.602738
-0.236286
0.784438
0.618385
-0.468713
-0.632246
-1.36192
-1.54622
-0.668983
-0.641721
-0.7895019999999999
-0.994879
-0.920326
1.08347
1.22304
1.08363
-0.706464
3.2034
3.32892
3.15427
2.86777
2.8534
3.24813
3.33107
3.45087
2.00703
2.06416
1.99848
1.93857
1.94502
2.01193
-0.255
0.20573
0.418077
2.14143
2.14341
2.19932
2.26316
2.2681
2.35711
2.19012
2.56677
2.56508
2.84702
2.36701
2.35233
2.42008
2.50157
1.2
2.03294
2.87161
2.89158
2.34802
2.37075
2.59062
2.57214
2.48706
2.81502
2.74019
2.83948
2.72427
2.64633
2.69325
2.74797
2.52388
2.52148
2.58639
2.8811
2.87112
2.89257
2.58821
2.71131
2.61723
2.94386
2.96139
2.99243
2.91206
2.85496
2.88066
2.37218
2.32095
2.8045
2.89368
2.90552
2.90167
3.17133
2.73092
2.7996
2.86719
2.78839
2.5344
2.71151
2.68144
2.55305
2.69634
2.62217
2.26884
2.41912
2.27968
2.40099
-0.375429
-0.0921805
0.0387548
1.18291
1.22131
1.35724
0.8242
0.7670349999999999
-0.30605
-2.95499
-0.4418300000000001
-0.396083
-0.5740219999999999
-0.5185759999999999
-0.996618
-1.73351
-0.225387
1.665
-1.18501
1.62454
3.4233
3.43
3.23434
3.12438
3.2068
-0.545859
1.59
1.87465
9.65499
3.36413
3.37092
2.86866
2.77954
2.8536
3.40848
2.915
3.36543
3.00041
3.17874
-0.861679
-0.9359189999999999
-1.55127
-0.768405
-0.798686
2.21585
2.23835
-0.124997
1.38
1.035
-0.6024039999999999
-0.562453
1.05247
1.06508
0.8710129999999999
0.9196329999999999
1.07229
0.169528
0.121863
0.162112
1.42107
1.63217
4.435
2.91261
2.88979
2.90616
0.948778
1.09728
1.07412
2.17045
-0.331997
-0.977943
0.276254
0.399897
-1.18073
0.698589
0.8290459999999999
7.45999
0.205001
-3.28174
-3.43862
-3.85999
-3.13097
-1.965
-1.46
-1.54
-1.55711
-2.47999
-2.63999
-1.55999
2.94576
-0.530057
-0.8171700000000001
-3.58999
-2.30999
-0.08587939999999999
-0.219684
-0.713465
4.95499
3.81
-3.29499
6.61999
4.26
4.74999
14.13
16.845
11.995
10.18
21.765
17.525
10.255
2.565
1.74913
1.86194
1.8746
7.91499
7.19999
8.62499
-0.899845
-0.730386
-0.9749100000000001
1.78
1.93657
2.04253
0.069774
1.23164
1.22071
2.15139
2.06001
2.27804
2.21565
2.29324
0.5357649999999999
0.665123
0.461842
0.7434200000000001
0.5593800000000001
0.118096
0.318377
0.09974609999999999
-0.872684
-1.00049
-1.59
-0.923163
-0.232429
-0.408418
0.132234
-0.6267119999999999
-0.350963
0.434821
0.453948
-2.34198
-2.74932
-1.36002
3.10862
2.945
2.39778
1.07365
1.22378
1.37812
2.3238
1.96
1.04895
2.07618
2.10513
2.50538
2.52519
1.18084
1.61136
1.73994
1.62139
2.47245
2.36393
2.60348
2.74401
2.59875
2.57294
2.90836
2.83329
2.89367
2.87051
1.61949
1.48876
2.88781
2.79689
2.89758
4.88348
3.88739
2.78041
2.85584
2.89102
2.91003
2.83386
2.79892
2.45315
2.43619
2.56708
2.46014
2.1755
-0.6099979999999999
4.235
1.94949
1.705
1.95
2.66934
1.33399
1.38
1.38542
16.955
14.145
1.90738
3.02023
3.09379
3.44077
3.70784
3.53543
3.42492
2.88429
2.89685
2.90364
-0.761841
0.139456
-0.381903
-0.06772539999999999
2.25406
2.3411
0.630134
0.162004
0.0393929
0.14552
2.85244
2.81162
3.15988
3.10633
3.04541
2.93678
2.98342
2.74739
2.83901
2.92289
2.785
1.96912
2.25661
0.9555009999999999
0.865142
0.704039
-0.5069400000000001
-0.499683
-0.502089
-0.50517
0.6223759999999999
0.7975169999999999
-3.69999
-3.92999
-3.47999
4.66214
4.27499
-2.77499
-1.45137
-1.14607
-1.2996
-2.115
-1.39
-2.26499
-2.65999
0.40568
-1.39499
1.03
-2.22999
4.22499
2.94736
2.64591
1.85842
1.95401
1.93119
4.30499
4.87295
5.27999
5.48334
4.98999
-0.825948
-0.5596300000000001
-0.705824
-1.9958
1.98587
2.04562
2.29305
2.69785
2.22486
2.12115
2.16783
2.16234
-1.7079
-1.52083
-0.147754
-0.125093
-0.351984
-0.1098
-0.212312
-0.0955607
-0.264637
-0.129579
-0.107246
1.65837
1.57651
1.83266
1.88715
1.76172
0.376318
0.267104
0.537189
1.66908
1.64515
-0.285897
-0.622934
-0.347484
-0.938118
-0.7104849999999999
0.0455688
-0.116018
0.100091
-0.8232309999999999
-1.61413
-1.53012
-1.79899
-0.09006989999999999
0.0191285
-0.647861
-0.731495
-0.135622
-0.5090249999999999
-0.5193300000000001
-0.397065
-0.360464
-0.477712
-2.18438
-2.18745
2.64358
3.06683
3.04226
2.62465
2.93455
2.88289
2.89689
2.49064
2.50927
3.03434
2.95907
3.02022
2.6907
2.74931
2.72017
2.98403
2.89931
3.4278
1.75082
1.69399
-0.484997
0.211466
0.518813
2.09847
1.55626
1.93831
1.8412
3.53822
-0.429987
-3.47499
2.3774
2.25446
1.13433
2.78434
1.79747
1.80032
1.9495
1.35789
1.43952
1.385
1.54045
1.60647
0.682937
-1.63999
-1.09
-0.499996
-0.479996
0.880002
8.344989999999999
20.42
15.78
0.255737
0.185414
0.231995
12.435
-2.34267
-2.90999
-1.9152
4.67
8.718999999999999
2.03946
6.54999
7.42999
2.79985
-2.95499
-1.235
10.61
11.6
10.495
5.43999
6.44999
2.26606
2.2061
2.14278
6.11999
5.84
5.73999
2.92
1.94287
2.01423
2.03429
3.16
6.44999
6.52999
5.56499
-0.9299959999999999
9.21499
2.9756
2.91139
3.30636
2.76
2.8597
2.56621
-2.80999
-3.24999
0.180795
0.0941684
0.52053
0.468956
1.75467
1.70586
1.7567
1.65696
2.44568
0.7708959999999999
-1.21179
-1.39436
-1.72977
-0.230878
-0.220867
-2.14197
-2.24211
-2.01549
2.28645
2.00395
2.126
2.06373
2.12435
2.36942
2.38425
2.31884
2.36785
2.35169
2.34988
2.33406
1.93651
1.84938
2.65746
2.61622
2.96098
2.84886
2.8348
2.92949
2.98424
-1.91499
-0.328764
-0.877046
0.497782
0.278269
0.651527
0.354632
0.7436119999999999
0.741551
0.0850018
-0.202502
-0.135595
2.00227
2.00856
2.07551
2.16251
1.84437
1.49161
-0.5514749999999999
-0.7799959999999999
-0.0766709
0.629034
0.4322300000000001
0.9032629999999999
-0.352088
-0.638
0.727366
0.571932
1.01538
1.59358
-0.9451809999999999
-0.963634
0.337624
1.15473
-2.86499
-3.03999
-1.66568
1.96916
0.6382439999999999
-0.724171
-0.7964289999999999
-0.9960909999999999
-3.19
-3.39999
1.87934
1.82412
1.73814
6.39999
10.655
6.76173
5.14499
3.44
0.023656
-0.345
0.107861
0.9059619999999999
0.89368
0.290002
1.07231
1.99781
2.81542
2.80144
2.74502
2.19393
-2.33613
-2.28695
-2.20881
-0.593832
-1.145
0.0225423
-0.0170692
-0.00128727
-0.0712159
0.0311748
-0.3999
-0.259098
-0.368765
-0.0635442
-0.00759459
-0.161323
0.6049829999999999
0.65886
0.563527
-0.132045
0.0131584
-0.430993
0.362451
-0.830472
-0.247295
-0.374371
-0.621506
2.90922
3.20848
1.29289
1.19393
1.13841
2.9486
2.79015
2.78547
2.87399
0.616754
0.550935
1.41274
3.54529
3.16545
3.15086
3.11169
-0.801651
-0.489543
-2.38999
1.905
2.62
0.2197
-2.01999
3.92
5.66499
6.87999
1.97682
2.15674
-1.29463
1.75191
0.572869
0.337043
0.00805341
-0.00881578
0.8389179999999999
0.298132
0.125336
-1.73195
0.492681
0.421054
-1.00751
-1.23074
0.547396
2.70898
2.91767
2.95476
2.90278
2.90467
1.90005
1.62916
0.37157
0.357209
0.368557
0.136325
1.22462
0.728583
0.9368749999999999
3.00126
3.0434
2.91319
2.90761
1.46153
1.38332
1.61746
1.29487
-3.97999
8.84999
3.23275
3.13564
3.23009
0.05640299999999999
0.0770952
-3.45499
-2.31499
9.96499
5.72999
-0.08150439999999999
-0.0740316
6.25499
3.16323
3.30588
2.0855
2.02299
1.92801
-0.428861
4.16999
-2.17279
0.6285189999999999
0.572778
0.772716
0.898384
-0.344929
1.46994
1.33732
-0.9962409999999999
2.80383
2.86807
1.67777
1.47541
9.284990000000001
3.81
3.59787
1.96437
2.4667
2.83
3.23715
3.30029
3.13444
0.169069
0.147029
2.24049
2.31929
2.69631
2.74864
8.664999999999999
3.44
0.170003
6.80999
5.395
5.74499
21.535
17.86
6.94999
7.97499
2.22525
-1.48
-1.1583
6.08
3.025
-0.533311
-0.755848
-0.423747
-0.3817700000000001
-0.498645
-0.737756
2.52803
2.22691
2.0778
2.65366
2.63207
2.81587
2.88419
2.52639
2.5284
2.24412
1.80794
1.56125
1.81348
0.821488
-2.06
2.09932
2.15949
1.82974
3.05121
0.14024
2.47035
2.67481
0.0437395
-1.785
17.505
-0.674998
-1.74499
0.365004
-0.754996
8.04499
5.25499
1.96805
2.18738
2.12806
0.11305
0.117122
0.16983
0.256649
-1.33577
0.202543
0.36843
0.620377
0.300793
-0.559619
-0.475659
-0.349875
0.490873
0.0155612
2.93724
2.13599
2.60243
2.5851
3.01861
2.33081
1.41326
2.07544
1.1171
0.9749479999999999
-0.0367896
0.00296115
-0.128745
-1.41
-2.05065
5.16
0.310002
8.13209
3.625
-1.5061
0.0327959
2.87315
2.94629
2.93041
1.80916
0.363049
-0.0738891
1.35242
-0.6147619999999999
-0.6384219999999999
2.96869
2.25964
-3.39499
3.61
3.235
9.434990000000001
10.435
8.23499
8.95499
-0.8941669999999999
2.73362
2.65493
0.30349
0.171414
0.5276200000000001
0.40389
0.53212
1.21327
1.33571
0.207887
0.150392
0.09854349999999999
-3.89499
-3.58999
-3.81999
-1.55499
-0.528207
1.055
3.19
-1.33486
-0.0775777
1.46815
1.69435
1.70587
1.88142
2.26363
1.53855
1.62726
0.924998
2.54832
2.43384
2.41564
2.99233
1.99969
2.1766
2.14161
2.269
2.60101
2.66534
2.29279
1.19272
3.15765
3.21634
1.48578
1.5089
6.93999
2.72722
0.6350009999999999
-1.68249
-0.5649959999999999
-0.999775
2.245
3.74
1.81472
2.82
0.269283
0.13149
0.234405
0.6788339999999999
-0.5833189999999999
-2.13411
-1.89073
-2.11018
0.7923129999999999
2.44988
0.882636
-0.289835
2.44817
2.46124
4.67499
-2.51999
-0.169996
5.53
7.275
-0.814998
4.995
0.764311
1.95316
1.84106
3.173
2.69512
2.61011
2.18141
1.68
2.53214
2.83208
-2.08499
0.430001
6.96499
8.104990000000001
-0.8908739999999999
0.102157
0.186238
0.0993676
0.533913
2.40893
2.41612
2.38265
1.83515
1.46077
1.39413
1.46896
1.47322
1.58325
1.68373
1.91705
2.6738
-0.294061
3.805
4.8
2.605
1.93331
1.82839
2.01487
2.26
24.09
-2.335
2.06988
3.06082
2.37877
3.04516
1.97
1.58958
9.174989999999999
3.925
4.87999
-1.015
-0.9649979999999999
-2.83999
-0.9150349999999999
-0.609816
-0.0702584
1.71779
0.937087
0.9448139999999999
2.96095
2.96107
3.19284
2.885
1.30999
2.85838
2.84923
5.32898
1.25
-4.03999
3.25171
3.375
-0.5136229999999999
2.82876
2.4576
2.4566
2.41738
2.51106
2.48984
2.36115
2.3729
2.45722
2.3834
2.43648
2.501
1.395
1.59494
-3.37499
-3.63499
-1.95999
-0.539995
-3.49499
-1.83076
5.615
-0.428697
-0.334237
-0.7460479999999999
-0.224199
-0.137323
-0.0220942
2.40911
2.09472
2.38062
2.55705
2.47479
6.15499
2.007
0.100126
-1.91999
3.39
4.395
24.355
-3.50499
-3.62999
0.9854649999999999
0.626734
-0.683017
2.40151
2.88187
2.81486
2.235
0.0500022
1.485
1.825
3.37819
3.20961
-0.679207
-0.506
-0.633045
-0.504881
-0.793504
-0.439995
-1.58556
-0.7192529999999999
2.89284
2.88665
2.84917
2.73977
2.80508
1.16683
-1.45767
-1.73001
2.28622
1.28335
-2.42499
-1.02395
2.91642
-1.375
-1.71949
1.66456
1.68505
0.7472700000000001
1.73727
2.43075
0.486936
0.338539
1.34
0.0300307
2.50799
2.42921
6.5
-1.20499
1.75
-0.0499962
1.88346
2.49092
0.07938969999999999
0.172099
-1.08808
3.07758
0.241312
-2.17499
2.39264
0.312403
0.452628
3.12431
1.66682
2.43768
2.43376
2.57051
2.47539
2.47126
1.69562
2.60615
0.9854619999999999
2.74728
1.83881
1.37795
2.82
1.78349
1.90751
2.49704
2.55724
2.27
-0.571591
1.58789
-0.9241969999999999
2.1574
0.8146359999999999
1.98257
4.15
1.57418
-0.8344739999999999
0.119633
-0.5909209999999999
2.08459
-0.6556339999999999
1.73
-1.37106
2.5257
-0.00281106

