# vtk DataFile Version 2.0
generated by FAnToM (SaveTensorField)
ASCII
DATASET POLYDATA 
POINTS 1922 float
69.23330708661418 -0.7100000000000055 275
69.23330708661418 -0.7100000000000057 275
68.88165354330708 -7.003385826771654 275
68.62792322834646 -9.2075 275
68.61834645669292 5.538346456692915 275
68.61834645669292 5.538346456692913 275
68.33582677165354 8.950846456692913 275
68.33503937007873 -12.62 275
68.15157480314961 11.15496062992126 275
67.98338582677165 -18.91338582677166 275
67.53661417322834 17.40330708661417 275
66.88338582677166 -25.51338582677165 275
66.88338582677166 -25.51338582677166 275
66.83157480314961 24.22330708661418 275
66.72626329992292 8.233854047802627 275
66.44080708661417 27.88876968503937 275
66.37669291338582 -27.80501968503937 275
66.28496062992126 30.30669291338583 275
65.57992125984252 37.12669291338582 275
65.55677165354331 -31.28661417322834 275
65.20199733968079 10.66936992439092 275
65.18044301012176 27.21625715123955 275
64.91304245017453 -0.5861707915775278 275
64.91304245017453 -0.5861707915775279 275
64.75571857387894 -9.197484807645186 275
64.4567716535433 -37.88661417322835 275
64.14934403420661 -26.99561354689833 275
64.14934403420659 -26.99561354689833 275
63.89014423527208 -18.69211950922544 275
63.88228132387708 28.51805555555556 275
62.89488188976378 43.99 275
62.89488188976377 43.99 275
62.63856539638974 16.79967697667054 275
62.53699671772429 -30.04550328227571 275
62.3905573456414 35.10846033266569 275
62.38842519685039 -45.32330708661417 275
61.72918915261756 3.775736447426787 275
61.63836614173228 -47.95542322834645 275
61.58746062992126 47.77253937007874 275
61.34973339358338 -39.27220063262539 275
61.08651522673544 -8.726925480335273 275
60.86503937007874 50.30677165354331 275
60.79160091166301 7.085185319082051 275
60.44810359951603 -5.940800750453747 275
60.44810359951603 -5.940800750453748 275
60.43842519685039 -51.95330708661417 275
60.43842519685039 -51.95330708661417 275
60.40043874574624 46.73314535731649 275
60.40043874574624 46.73314535731648 275
60.10617089733226 -0.1259604431869221 275
60.10617089733226 -0.1259604431869225 275
60.06035433070871 -23.43551181102361 275
60.00903185061846 -11.00713075404375 275
59.57087596236099 22.33410778443114 275
59.13992521739132 47.92615130434783 275
58.93210390826118 -49.61864966065995 275
58.72382893464244 -16.86656052901524 275
58.37007874015747 -59.39000000000001 275
58.18000000000001 57.17007874015748 275
57.47547764420426 -23.29215118561816 275
57.47547764420426 -23.29215118561816 275
57.2214986925348 -24.65619024321665 275
56.99051479341737 4.853768564075633 275
56.97736767461345 24.2930529057811 275
56.97371801389592 39.51648025758347 275
56.88258326050926 22.38499725779721 275
56.88258326050926 22.38499725779721 275
56.80925684364345 16.42286741354116 275
56.80615588690392 25.63238797299198 275
56.7046441430771 -36.8869306407675 275
56.55596210873147 31.99424958813838 275
56.30041536838402 -27.61094601723233 275
56.25519809447128 6.502035813204507 275
56.17212111357868 8.185531389593908 275
56.02546351002336 -23.0004514573853 275
55.98066660195814 24.07139046252532 275
55.72389856687903 -12.60262801273882 275
55.49527812096149 4.797398484104425 275
55.49527812096149 4.797398484104424 275
55.43376116978067 -56.6203312573337 275
55.28591525663715 -23.73758003539822 275
55.17335335335336 53.86994994994996 275
55.17335335335336 53.86994994994996 275
55.03444075616256 -33.64292873917388 275
54.60701994344959 7.373667962299709 275
54.60701994344959 7.373667962299709 275
54.44801482205163 38.60766399162598 275
54.27842519685039 -67.31 275
54.11873568019094 -14.60898642004774 275
53.96345703354914 40.93883703018582 275
53.84720443912813 23.59552985114301 275
53.41738074245936 -3.597236784996155 275
53.40343444227004 -43.90833414872797 275
53.38503937007874 63.37511811023622 275
53.38253697928788 -13.18841100186175 275
53.36258425880627 42.28805894080232 275
53.2909709763539 -4.542283685481811 275
53.23424277270285 -14.5688854379366 275
53.1218460624725 -43.61907127144743 275
53.00375377805881 -43.69773936136579 275
52.99176258674147 -43.80065347704119 275
52.95214598025387 -15.7290256498086 275
52.93867866356524 -43.54954523155002 275
52.88439456143261 -43.73228064997512 275
52.80220429411764 -8.325290523529286 275
52.80220429411764 -8.325290523529288 275
52.78751968503937 -70.1375 275
52.67311283693223 -4.540483838421436 275
52.57204078266494 15.45411633247089 275
52.50932507535359 -35.14058962439137 275
52.50765141509437 -43.49222582547171 275
52.36000069463741 -3.998061200333436 275
52.29857661221893 -4.921906721467943 275
52.29857661221893 -4.921906721467944 275
52.21488320914056 6.067720799801292 275
51.95829436158194 41.21983966101694 275
51.63582188271022 -5.367784718162809 275
51.63582188271022 -5.36778471816281 275
51.5034695144965 -28.28210231600621 275
51.41232316644115 20.85266212449255 275
51.29628205235606 -4.661969516230354 275
51.23650638520586 -15.75651901605024 275
51.18312173712706 29.67675577698422 275
51.13759219280382 0.6066064019008452 275
51.08684714921147 -13.93408746461787 275
50.85564908474576 -52.644368346516 275
50.77249999999999 66.75921259842519 275
50.69165354330709 -74.72 275
50.44509589088398 -24.18537123618784 275
49.98749392147587 6.446310009460733 275
49.92104358413751 49.5544421818456 275
49.80363995503781 5.70550194992848 275
49.71099308544416 65.49087208071685 275
49.68350770310933 7.35054765295886 275
49.66477273722627 38.63117361313869 275
49.61499498035793 6.14231680052379 275
49.51880369208497 -71.05673865830116 275
49.51880369208497 -71.05673865830116 275
49.50707270750272 12.95065048930772 275
49.36518950276244 6.480097292817673 275
49.30687031763417 18.67988006571741 275
49.22510412876137 -26.1007099020294 275
49.09503937007874 68.91496062992127 275
49.09503937007874 68.91496062992125 275
48.85647615215803 5.698514589124614 275
48.70531286089238 25.32558018372704 275
48.68242998646821 -21.99334040595399 275
48.68242998646821 -21.993340405954 275
48.64338292749409 22.2586983917863 275
48.63604144249971 -31.34128019499589 275
48.04600142118863 28.73682763864043 275
47.83368967334036 -14.46983224446786 275
47.72272263878872 36.428270259553 275
47.72241929081769 65.90660822969039 275
47.72241929081768 65.90660822969039 275
47.48973226048842 -18.55285077019411 275
47.46164707050646 -13.27689304865938 275
47.44716995447651 -61.31074355083459 275
47.17711391040755 14.91667271808689 275
47.16048853924546 -38.32908741283749 275
46.8525769563896 37.08319824494757 275
46.80161677631578 34.65323750000003 275
46.59999999999999 -82.64000000000001 275
46.5486251047486 -19.94955535963689 275
46.49362161383291 1.157638286263307 275
46.49362161383291 1.157638286263306 275
46.45768784266985 -34.26085673420739 275
46.30514273480663 36.43147060773482 275
46.23936932967351 9.816413764807866 275
46.23161806684733 -25.21940858175248 275
46.0185882900539 -9.905940884370418 275
45.978924883841 -62.0428110480124 275
45.91925886448849 -60.6613470808784 275
45.91925886448849 -60.66134708087841 275
45.70533627639156 12.51683857965451 275
45.67961253325452 -0.5240531509015682 275
45.5891283692815 26.82907242753126 275
45.41434539353264 -0.5640325066504004 275
45.41434539353264 -0.5640325066504005 275
45.39198856206771 -61.48328182016746 275
45.38960027630669 -0.8747974275846387 275
45.38960027630669 -0.8747974275846389 275
45.32479847870182 -0.3975616495943148 275
45.32479847870182 -0.3975616495943149 275
45.31311846877098 0.1767219499664563 275
45.31311846877098 0.1767219499664562 275
45.26426209400079 -48.19576487071711 275
45.20499520208605 -7.396639640156454 275
45.07563325917686 7.744911797058458 275
44.97460983606555 -0.6860854446721421 275
44.96797368421049 59.87447368421049 275
44.94646963217106 -61.05316947259235 275
44.89764224719104 39.1383130898876 275
44.69814299688752 44.8515985326812 275
44.65532332415055 -0.1179375955004374 275
44.65532332415055 -0.1179375955004375 275
44.63663664355062 -62.91713447988906 275
44.61248832394833 5.681488141768804 275
44.59266627666892 21.50662014223445 275
44.53852188235296 -12.30042047058824 275
44.30007874015749 75.12 275
44.2910781628254 -39.16389983419003 275
44.27011392600929 -47.39205806723871 275
44.16796258503399 58.14647392290249 275
44.14620917986124 -40.0057404732254 275
44.09189185266496 -21.91021878277839 275
44.07280997007778 -61.72166690604429 275
44.05567808219178 -44.43313842826237 275
43.97921049094643 -37.79648730632819 275
43.82998127725418 57.52887058658041 275
43.6668854881267 -15.50380501319259 275
43.66347165458141 58.3373005932762 275
43.62420853850187 -15.65628784704037 275
43.54468400648825 -15.58478772100568 275
43.5163334038055 -15.54111839323466 275
43.51623315068493 -15.6377673059361 275
43.48798679635048 -15.56352940265105 275
43.48498715953308 58.02394941634242 275
43.47307960936185 9.796429752483569 275
43.46498192873904 -15.60733503307021 275
43.44855489130432 -15.50807065217389 275
43.42497151607962 -29.44829693721287 275
43.36663829078795 -15.56983873473918 275
43.06019060477573 57.55916737335419 275
43.01027730496455 58.13521670606777 275
42.9554636130137 -10.57406880565068 275
42.83638205935252 -30.28103169964028 275
42.78714537375849 7.830127861996864 275
42.77467366352199 -46.72804402515722 275
42.75159652958055 -75.78963656237191 275
42.71980916334664 58.92328047808763 275
42.50083238883144 43.40200691830403 275
42.37345591531756 -11.79385616438356 275
42.37008202247191 -29.66807303370787 275
42.28383425751881 -39.05653421052632 275
42.271531152513 -33.07231797010399 275
42.10991829070898 -28.74966927808354 275
41.94841819052179 -24.29412969522897 275
41.92084906970977 32.27282188042668 275
41.78720652120916 16.57258404436859 275
41.68919885090907 19.97460247272728 275
41.39609215686274 -11.51332654600302 275
41.39453525256094 -29.60513613564112 275
41.35954213321195 14.0924026551358 275
41.23808856433751 3.085143709431077 275
41.2035981027668 -9.619055833992094 275
[...]
POINT_DATA 1922
SCALARS scalars float
LOOKUP_TABLE dummy
4.989655984251968
4.989655984251968
4.292321811023623
4.019771692913387
5.640613464566929
5.640613464566929
5.956989448818899
3.637388976377953
6.138502204724408
2.916017637795274
6.58493937007874
2.327782677165354
2.327782677165354
6.845897480314961
5.971695080956052
6.938029606299214
2.108920511811023
6.931080236220474
6.83600559055118
1.914975354330708
6.294343954074487
6.972567231920201
5.126738404458957
5.126738404458957
4.015334753736829
1.564357716535432
2.103145773041943
2.103145773041943
2.856318711248478
7.014287620173365
6.734230472440945
6.734230472440945
6.83066182835427
1.84102102844639
6.946097001654618
1.367996456692913
5.666134299023957
1.309169870078741
6.658003897637796
1.466745237234523
4.05198068450462
6.595243070866141
6.325293102797862
4.442269272534781
4.442269272534781
1.315524566929134
1.315524566929134
6.690556922702966
6.690556922702966
5.255387087038534
5.255387087038534
2.25747477690289
3.747518638201714
7.166103934987167
6.669804608695652
1.281009962555582
2.928471165005861
1.311966456692913
6.353939448818897
2.211183982574172
2.211183982574171
2.051246752425136
6.293283000700281
7.321922256074338
6.966677493645146
7.330644673798403
7.330644673798404
7.174315758402338
7.318446919397946
1.369906906312921
7.12902406919275
1.817157434499732
6.542105456253355
6.674702809327412
2.157695512237118
7.437241990209317
3.332127531847139
6.342902123287673
6.342902123287672
1.279767280440473
1.992166651327433
6.478179889889889
6.47817988988989
1.416139329613591
6.904645108388311
6.904645108388311
7.036881757152827
1.37593968503937
2.994718663484486
6.971742324896999
7.808543700159487
4.892980001933487
1.181797925636007
6.184837401574804
3.223404427507567
6.936427115949122
4.767060354691077
2.946473709027404
1.180965811702595
1.176823482453367
1.176047459028495
2.772536741889983
1.174998092620004
1.172084898026861
4.086135123529433
4.086135123529433
1.427023543307087
4.769489411764708
7.985012587322122
1.234593863899838
1.14485749292453
4.862143473186994
4.690464338141711
4.69046433814171
7.159647029309492
7.016646813559323
4.551236460428931
4.551236460428932
1.405557637673699
8.087837522327467
4.685128590575921
2.570592864619679
7.726106622508928
6.099840604209087
2.874974909017386
1.194684315630886
6.087566181102362
1.528423543307087
1.591780794198896
7.535922057710501
6.611939188781665
7.466423135090948
6.112133517251112
7.719158381143429
7.324445591240876
7.606192460061107
1.465788687258688
1.465788687258688
8.357176252265315
7.757918121546957
8.346204578313252
1.268923468159549
6.029353307086614
6.029353307086614
7.715698919775662
8.311548910761156
1.617947585926929
1.617947585926928
8.497368630746866
1.005877456830729
8.049414325183861
2.568184520547945
7.514535310021631
6.093395427361737
6.093395427361736
1.841470981840954
2.696253435948362
1.27797602427921
9.03454395419333
0.8187171110316458
7.522882333991795
7.716519983552631
1.696950472440945
1.551644973812847
6.74570611911625
6.74570611911625
0.6869057878426702
7.604277033149171
8.929038264952325
0.9733733640469733
3.350868797158254
1.292330832903114
1.258125693626138
1.258125693626137
9.892743570057577
6.433173412651491
8.849338730594859
6.430274046369734
6.430274046369734
1.278251481761921
6.325337863228174
6.325337863228174
6.49646872718053
6.49646872718053
6.709295674949642
6.709295674949642
0.9237682547446209
3.844006899608865
9.144626582622669
6.373883135245896
6.276808947368422
1.251654057129178
7.452410345505619
7.051958742774564
6.888669118457324
6.888669118457324
1.318943425797503
8.806277346803579
9.876569437944493
2.404964682352943
5.804295039370079
0.5991475418006972
0.886475046279365
6.323242653061224
0.6027783903753792
0.8410807531406271
1.27944461400359
0.767031985580388
0.529597480306143
6.346402254888169
1.630033535620066
6.312051516150296
1.59737968569932
1.594431328467153
1.598787748414378
1.580234415525108
1.589293355138576
6.32220346303502
10.12646890048829
1.571064797951773
1.590514809782607
0.4148205145482383
1.544686546059915
6.356056833296138
6.316540133963751
2.57817925941781
0.3277847196492814
10.53853568565953
0.7894436910377355
1.588091222844651
6.286725537848605
7.168283941054807
2.16305495641345
0.228962179775283
0.3601449356203035
0.3334808126083193
0.186643790547107
0.2132958179352203
8.482726747705282
11.11204249146758
10.81714341818182
2.000515022624432
0.01826577463793977
11.54327194659384
9.371111156930132
2.51317285375494
3.173523111432708
10.72241141497462
5.91670213483146
7.328903522504893
6.713512037578289
11.95561428571428
1.330370507052179
1.330370507052179
8.198253205397302
0.1112775686381825
0.1112775686381809
8.548834409026799
0.9319354131966688
10.06652695187166
1.868886535433071
6.315991587608906
6.315991587608906
0.007654011422489719
7.010375363328309
0.03344338256227734
8.698105211072665
9.372072937625761
1.531834426229508
10.77195300668151
0.04180723377818757
-0.09971482661008454
10.00970474066798
0.9640279378668576
3.59899695718323
3.59899695718323
5.885806171805379
12.25625736849334
0.06897501525027755
2.727642601736758
8.653449914333475
8.422505435627725
8.422505435627725
13.00683845925923
0.945822896535689
0.9537347864730285
10.85660619307832
0.1620321689497714
13.55253954081631
10.67716352650822
0.8880130685732835
0.1791280215480097
-0.3116858592533718
1.683665098755185
12.00624333333332
0.9369724307387852
-0.4501332659483981
-0.4501332659483981
9.083329172876308
1.005195900466564
13.82572670718627
8.424922238648362
-0.5777080102429433
-0.606377084637969
0.5225539020618549
-0.06544313122585232
1.948847283464567
-0.6643899418782482
6.0134391452315
5.636603070866141
13.90980936018957
-0.7485078288078006
14.14941243339254
0.4741344712295575
13.93546199129768
-0.2786952310737271
14.64479096275189
6.784051256887955
14.30932096474954
-0.577973721977602
-0.8252617081850478
-0.7524636742377676
0.1785472857752186
0.1785472857752182
10.15129384098544
15.11212280701755
15.11212280701755
15.07982168312582
-1.033149973159498
-0.8976945942080774
-0.9478417794882471
7.561582733499375
-0.9269682404092044
1.342533725169432
7.976867543658088
-1.154014973637961
-0.07985002606746333
1.19102837475686
15.20776225645674
-0.5752603908278773
15.8288481195757
1.805634993992791
17.32361191780821
1.882186487080814
1.882186487080814
7.857143789960369
1.977682196001311
8.190963502298573
16.56364015748029
-1.057241504806934
9.544744615384609
2.041266535433071
1.761182097982709
1.256920145315881
-1.614233078532107
0.1508001468192236
5.539738740157481
5.539738740157481
18.79802325581397
1.083300234325521
10.33606016260163
5.562190618692699
-1.762698940864949
-1.764294483713962
-1.764549369561155
-1.764549369561155
-1.764755004763415
-1.764755004763415
-1.765228372093025
-1.767388989899001
0.6237772963430019
6.448628591580339
-0.4937192295910324
-0.1403278438543745
7.205904969393435
6.245216829745597
-2.084535291640079
14.41990293838866
15.54031311117181
9.901019944903579
11.06189893924785
1.840774382934623
1.393976134647975
15.93023811394891
15.4785
1.6345731056004
24.16428288822945
5.494378976377952
5.494378976377953
5.546744414893618
5.546744414893618
24.26398106402163
5.675343674911661
-2.650834301316157
0.7100343476697359
5.733835424836601
5.733835424836601
-0.5553786483998372
5.776302379182156
6.299498996988346
1.81008792995792
-2.804571856839123
0.565973464576549
-2.286587095532881
6.336094263865855
1.892387239687443
-1.259122624221039
-1.348514360277132
-1.348514360277133
5.728012719514196
-1.210136895711397
7.470388968439151
5.999299055610865
5.761213704236257
5.761213704236257
8.973147995498666
-1.368891634548406
6.26811739576408
9.261148958360028
1.116758197879859
-0.07742543847376834
-0.07742543847376848
-1.328792100022123
-1.712796923488512
0.9643483783783762
-0.8563583809523564
7.371801820977111
5.689090770901194
6.188615486877607
-2.980443517942923
9.147744266417291
-0.1760271807737783
13.33972635414615
24.07407024793391
24.01906158798294
24.06262048192774
0.5795762290542991
1.100827681976144
-0.2924445608465591
1.086690228310503
5.721042386831275
-0.1626582805436771
2.207822125984252
-1.817426195262042
1.136344444267771
-0.2789733067714161
10.23190349186083
-0.02787932636410276
-0.1643791873410566
6.319376103663986
9.004980240069843
-3.216981431730239
1.08626572573464
1.137443025793652
-0.8551157233368408
1.666060942713568
7.798598547008545
2.104840864993872
12.26297663551403
6.005548721474
7.401895609284332
-1.527805467869221
1.863186879078695
7.030449287054413
7.030449287054413
17.99201039764358
17.99201039764358
10.9357987121042
-1.475922651172797
0.4749659338769734
5.310760393700786
-1.406085259276876
2.059131569250318
18.88916683621566
17.06096048657713
-2.046028948060489
11.45155997998999
-3.168277714831319
0.3089352399386735
18.30578891931744
-1.445664378250588
5.370705091844231
5.370705091844232
0.4835857298387106
0.5793353702565703
1.553213205511504
8.496422602607435
5.877256414177504
10.09249930183946
-3.105469566305256
-0.6318677811228632
1.832945585967619
1.832945585967619
9.519043135202072
9.40423316584223
9.589783449895616
12.59284337349397
6.262880555405284
1.906797120689655
-0.07561676545026562
1.886383106277076
9.547284751640113
6.429842851174936
6.926536879127189
0.6108226917131838
1.169953152674034
-0.9760811325342517
5.448302176782894
1.662402813602016
1.808807797356831
0.9896734118642018
1.460075249645495
0.1317509295774638
8.32704649415693
-1.892583785254122
7.213732932006634
1.927242998976458
1.927242998976458
6.047269764265256
1.903161950133571
2.108261545650611
-1.209991717941884
13.72168744804655
1.582112259370051
10.77731488864139
5.616576383014435
7.852583595679012
-0.8257825282331568
-0.8257825282331561
-0.006972037307105633
-1.354016299465239
-2.264309764705887
11.29642811459028
11.60570783132533
2.347132362204724
2.347132362204724
11.16857889322454
12.62683076152305
5.676321810766721
-2.028289944888399
8.901505491753207
1.693266658159649
2.222304039131155
6.192155390846496
0.9620570351696234
-0.4238622675736953
11.46372644801118
8.139058790028944
6.437500068823124
-1.870029047250192
6.080361104540079
9.677832100741902
5.172132677165354
1.222445702068966
2.283458820844428
6.916110791344668
-0.06184887416587202
0.4900679569313598
0.2168630906411201
1.61668959194777
-0.6259427489932801
-0.6314810414688095
9.951305699496363
-0.5952189255564053
-0.597321640996384
-0.5636096222922428
-0.5813555538645682
-0.5813555538645674
-0.6198040066287797
5.689462930157262
6.04993002469136
-0.477804824607344
6.224724610630407
5.965281324717287
0.9802893001769915
2.398620039370079
-0.3951909904430674
6.066681065874541
6.066681065874541
11.71792231863935
1.528211613000756
0.2457752857142896
0.7078265519371163
-0.6930428790181208
2.359621651464234
2.359621651464235
8.46028001396648
0.5280126597587926
7.367997103051747
7.367997103051747
1.351777760680763
9.155013482101342
9.804513263274336
7.722753210010877
2.327163598023064
11.4379664190193
1.886256872037917
1.886256872037917
5.090849921259842
0.1296720789557539
5.110950834004834
2.300536756211376
2.300536756211376
1.066941734356894
1.55569627136896
7.310585304276986
0.5301132687880835
0.5301132687880838
0.4548993971682264
0.6731833722578474
0.708416606852792
2.430414880367093
2.430414880367093
1.346763324717979
0.8799943017191436
7.363712615933412
6.406391787656657
10.0031981036648
8.560698340136053
7.774205766286514
1.653431919957216
0.9721453990849016
2.221858467554792
1.015244863613319
7.069042568641622
5.228648019036289
1.56890714659412
5.231295906264221
5.231295906264221
5.221635547445254
5.098983480662984
5.227520917353981
5.229357215659475
5.223629886961907
9.191203860669511
5.225115476772617
0.6666820745754882
5.060862913385828
5.060862913385827
10.02008148663102
2.151629034526349
5.712968132710905
1.278076292259084
2.464734251968504
2.464734251968504
1.079898438287155
0.8441454878568332
6.198705713222155
5.730961464358916
7.108973358955768
2.388401352865145
0.973732996092663
0.9751163566616774
7.260262465753426
5.75506624311356
5.421737324623115
5.421737324623115
2.081180566037736
7.889419746835447
7.889419746835447
5.392418446477062
5.392418446477063
2.031454786905498
0.9375971100765288
1.186650024354603
5.692184880859023
1.418649641226356
6.237247764206053
5.463896331182799
5.387710421715037
1.933172347935708
1.847891456209695
9.869232803657702
8.533957530836009
8.187855737881511
8.187855737881513
5.704450997679815
5.704450997679815
5.387541022753657
2.093283911969459
2.093283911969459
1.507262023460412
1.589136452191744
1.259833424303361
1.217274116897304
5.36072705384036
5.36072705384036
2.022496075105996
5.662087290455013
5.662087290455013
1.689289821428571
1.468339448640483
1.629834310118262
1.260664272985009
1.645985663082434
1.613355348837208
1.338702899428024
7.86687237889039
8.022976457388399
1.323167572952747
1.374222274987966
1.364913742182071
1.403727628490491
1.976872400910297
1.390019473354232
1.390019473354233
5.647698642099952
5.647698642099952
1.742977285237277
1.742977285237277
2.400349775918734
1.426005239901072
1.426005239901072
1.434096032876715
1.748299071560766
1.748299071560766
8.699984166220792
8.699984166220794
2.205527874015749
2.205527874015749
5.8355267136473
5.8355267136473
1.979699021820917
1.979699021820918
9.043089127006478
2.039388861498538
2.039388861498539
5.991919929231374
5.991919929231375
1.647343480662983
6.852769333333334
6.852769333333334
1.626453382309728
2.241246130030961
1.852008174273862
1.852008174273862
2.293303316361635
2.293303316361635
2.191910146014207
6.928943219358234
8.385384904458588
8.385384904458588
1.680769209932278
1.680769209932278
4.925242440944881
2.401422675457254
2.401422675457254
1.914697270114945
1.914697270114945
2.040779414604707
2.040779414604707
6.422907535413781
6.422907535413783
2.552267007030897
4.962512505347345
4.962512505347345
7.238005396338118
7.238005396338118
1.94841793918919
1.94841793918919
7.365067619165226
7.365067619165226
1.9577606185567
1.9577606185567
1.948780743169399
1.948780743169399
1.960985169111044
1.963945951945677
1.963945951945677
5.960050142724171
5.960050142724171
8.517069426365135
8.517069426365135
1.743440089047197
1.743440089047197
2.064360503875956
1.745046018702183
1.745046018702183
5.862559294739935
5.281177227767953
2.431009401525072
2.431009401525072
2.319688629213482
2.38391392178771
5.01659256271087
5.016592562710869
2.443391741635688
2.594315984251968
2.594315984251968
3.229196556671452
2.510417509042849
2.29800044112877
2.204582310960068
6.475822143459913
6.475822143459913
6.711226440325655
1.851278048174049
1.851278048174049
2.54612880585774
5.088868428500496
5.088868428500496
3.49874109263658
7.944544934725831
3.4084906280959
3.408490628095899
5.329335355653189
5.329335355653189
1.891682326332795
2.335783641511275
2.335783641511275
7.035386816658686
2.124969416909621
2.124969416909621
2.561592313575522
2.561592313575522
2.454100418796373
6.154892865381909
2.084639869451697
3.007534661354596
5.124506713050811
6.241519433472518
2.367582345161289
2.367582345161289
2.004119386091623
3.424723633156967
3.424723633156966
2.038080966755829
2.006018276520718
2.006018276520718
2.677898572561459
1.947138839724681
2.487154990345419
2.635489099999998
2.081815921941455
7.027557034344898
7.027557034344898
5.733425767543856
6.469586269456236
2.711105457271366
2.711105457271366
4.323534760273957
4.341866931974661
2.035748223554682
4.346426285097193
2.032808862148634
2.032808862148634
2.607646105106221
2.607646105106222
8.033078928150767
2.308842431666514
7.399140127538969
2.674494025075659
2.196016740858505
2.196016740858505
7.92493755993151
6.580560525739321
6.580560525739321
5.258528028886452
4.798748219049408
6.952871376462488
2.097744556074769
3.412785318028643
5.526408861348447
7.240685918367348
3.264336770833335
2.298126697108067
2.298126697108067
5.298839145936461
4.876974258639911
4.876974258639911
4.901846981757878
6.493519980095543
4.90257186764706
5.799467501945527
5.799467501945527
3.422599992346938
4.852240950704226
4.852240950704226
4.881841243669106
2.589505529781322
2.589505529781322
2.983365169082126
2.404492408272182
5.336664655073415
4.841156515837104
2.566150773659591
5.180328079663941
5.180328079663941
5.078499273107987
5.078499273107987
3.8562825443242
7.3847147706422
4.496498867549669
4.068304017191976
7.312489999999995
6.078289179854311
2.41781532498668
3.241829219512198
6.793445816054195
6.90393385265897
3.842339280227597
5.339156493150686
2.797737553970701
5.472261880819367
6.049861262562816
2.46895833135879
2.34584053304904
2.352275098376314
5.012346727891984
6.529913380978552
5.626359824163361
2.36628445447705
3.951590109846999
2.404498941723275
2.357900682652503
3.625805562043797
2.532885939457203
4.815945748031496
4.95636495036332
4.95636495036332
5.240283421052632
5.311552976253298
2.399788509053986
5.935032251712328
2.307223718411552
5.45908461793705
5.45908461793705
2.565223989466755
2.431748454444854
3.057063596377749
6.182751904761904
6.182751904761904
2.43032214323796
5.174733644884604
6.888488576850095
6.888488576850095
5.403999021566955
6.899966062811183
6.485404117069338
6.485404117069338
4.928674137592138
6.949071850533808
6.31258417833074
6.69206320130359
6.69206320130359
3.158761055363323
4.139561270837418
4.139561270837418
6.848660756646217
5.235544330755502
5.235544330755502
6.584052150621118
6.801926185535551
2.393891093026966
6.092658981658106
5.668260435212666
4.543284676012992
2.605506518178844
2.605506518178844
5.694449741763138
2.635470783401563
4.405720293276105
2.712372150577712
6.401954953583363
5.067307183387456
3.619994597701145
5.338342715503114
2.383684152204376
6.014792530345471
5.600788144578313
5.600788144578313
6.302570124572544
4.53436968442211
5.599887149138878
2.71087094488189
2.71087094488189
5.373261887067396
5.592351372549019
6.281394336432797
2.411111479099675
2.411111479099675
4.99572872650091
5.585186266791626
4.072574074296886
2.442022086412022
2.442022086412022
5.585979462717408
2.436213293523643
4.942079040578282
2.690637614871306
2.690637614871306
6.053477500000001
5.776692145623548
2.689972921683158
2.951247776747062
5.56529507290867
2.697507735849057
2.697507735849057
2.67631186129526
3.563461335559262
3.563461335559261
4.851196149521349
2.742463921967079
3.491291323932629
2.467206841569026
2.467206841569026
6.18709458286485
4.847408001876173
4.847408001876173
3.112063584202683
5.711498545147938
5.332254817636899
2.478707127753303
3.497333991573033
3.531507025660962
4.848895280498663
4.845851802676462
2.720170955569081
4.837129476584022
2.703068017107309
2.496397094703049
4.844427730369308
3.421825445307833
2.707164049283467
5.75432865362486
2.503495284505737
5.515015996955854
5.515015996955855
4.840398171945701
4.195577501203653
5.939743543689321
5.939743543689321
2.530743333333334
2.51948675704698
4.763011011235953
5.128298044223516
2.715666446078431
4.968739872122776
4.768344258077794
4.768344258077795
2.713914599615631
2.713914599615631
4.829411447902573
2.716621537475977
5.64976885462555
4.75605157480315
5.795269746085484
5.795269746085484
4.842643927696081
5.637340471966525
5.637340471966525
4.804895508078995
4.870469192307698
5.637494790250372
5.505631278324071
6.074353884780072
5.29788216126785
5.29788216126785
4.804286116322702
2.593624043545879
4.7550006504065
4.820024030858247
2.544672189781023
2.592925136606074
2.522361239077972
5.635944132231402
5.605593168428149
6.074901168831174
3.067308302266082
5.89108035966497
5.129034524703558
5.015519966006135
2.69513597537265
2.600677714450201
2.60391907310705
5.739001622283941
4.891649383923164
2.752941811023622
5.763642733281493
5.367297533729087
2.606470694230769
2.606470694230769
5.762677683397682
3.033671177007298
2.658265788061705
5.572590680489101
5.647495163620908
2.675912609649123
5.708509095238095
3.814441089376053
2.627610876963351
2.582392435547939
3.723774416898558
5.52248695006747
4.287119030418252
5.617762040658774
5.703528836490142
5.719922456563705
5.594983599633891
3.918930386643232
2.590247589394309
5.556697296881018